 Gaussian 16, Revision A.03,
 Gaussian 16:  ES64L-G16RevA.03 25-Dec-2016

 -----------------------------------------------------------
 # AM1 BOMD(NKE=23751,NTraj=10,GradOnly,Maxpoints=2) SCF=XQC
 -----------------------------------------------------------

 atoms for T=298K (=14156 microHartree nuclear kinetic energy for 6-ato
 m system) Default StepSize
 ----------------------------------------------------------------------
 Symbolic Z-matrix:
 Charge =  0 Multiplicity = 2

                         Standard orientation:
 ---------------------------------------------------------------------
 Center     Atomic      Atomic             Coordinates (Angstroms)
 Number     Number       Type             X           Y           Z
 ---------------------------------------------------------------------
      1          6           0        1.496366    0.306552   -0.000080
      2          1           0        1.281893    1.376082    0.000916
      3          1           0        2.545752    0.010183   -0.001343
      4          8           0        0.614267   -0.514938    0.000206
      5          8           0       -2.067975    0.134601   -0.000152
      6          1           0       -1.176171   -0.182877    0.000480
 ---------------------------------------------------------------------

 SCF Done:  E(UAM1) = -0.474947557348E-01 A.U. after   23 cycles
 SCF Done:  E(UAM1) = -0.475141228225E-01 A.U. after   23 cycles
 SCF Done:  E(UAM1) = -0.475342168619E-01 A.U. after   18 cycles
 SCF Done:  E(UAM1) = -0.475628178661E-01 A.U. after   12 cycles
 SCF Done:  E(UAM1) = -0.475237763750E-01 A.U. after   30 cycles
 SCF Done:  E(UAM1) = -0.474930207522E-01 A.U. after   11 cycles
 SCF Done:  E(UAM1) = -0.475304684503E-01 A.U. after   11 cycles
 SCF Done:  E(UAM1) = -0.475325163149E-01 A.U. after   16 cycles
 SCF Done:  E(UAM1) = -0.475356970841E-01 A.U. after   21 cycles
 SCF Done:  E(UAM1) = -0.475361795167E-01 A.U. after   17 cycles
 SCF Done:  E(UAM1) = -0.474865807466E-01 A.U. after   17 cycles

 Alpha  occ. eigenvalues --   -1.47812  -1.31751  -0.94175  -0.67030  -0.62984
 Alpha  occ. eigenvalues --   -0.59039  -0.56364  -0.52680  -0.47029  -0.41271
 Alpha virt. eigenvalues --    0.01681   0.10823   0.13709   0.18845   0.22585
  Beta  occ. eigenvalues --   -1.47792  -1.18669  -0.94158  -0.66573  -0.62510
  Beta  occ. eigenvalues --   -0.56863  -0.56369  -0.44018  -0.41232
  Beta virt. eigenvalues --    0.00860   0.01678   0.10828   0.13728   0.19575
  Beta virt. eigenvalues --    0.23531

 Mulliken charges and spin densities:
               1          2
     1  C    0.165196   0.000023
     2  H    0.070329   0.000051
     3  H    0.071673  -0.000208
     4  O   -0.292887  -0.001007
     5  O   -0.222937   1.031852
     6  H    0.208627  -0.030711
 Sum of Mulliken charges =   0.00000   1.00000

 Dipole moment (field-independent basis, Debye):
    X=              3.3867    Y=              1.1228    Z=              0.0027  Tot=              3.5680
 N-N= 6.070088590322D+01 E-N=-5.860939401246D+01  KE=-4.840416202125D+01
 1\1\GINC-N1\BOMD\UAM1\ZDO\C1H3O2(2)\OMABAZA\05-Jul-2024\0\\# AM1 BOMD(
 NKE=23751,NTraj=10,GradOnly,Maxpoints=2) SCF=XQC\\BOMD starting from o
 ptimized structure of H-bonded complex AM1 level of theory 10 trajecto
 ries of 2 point each Random initial velocities of atoms for T=298K (=1
 4156 microHartree nuclear kinetic energy for 6-atom system) Default St
 epSize\\0,2\C,0,-1.496366,-0.306552,-0.00008\H,0,-1.281893,-1.376082,0
 .000916\H,0,-2.545752,-0.010183,-0.001343\O,0,-0.614267,0.514938,0.000
 206\O,0,2.067975,-0.134601,-0.000152\H,0,1.176171,0.182877,0.00048\\Ve
 rsion=ES64L-G16RevA.03\HF=-0.0474866\S2=0.751299\S2-1=0.\S2A=0.75\RMSD

 Normal termination of Gaussian 16 at Fri Jul  5 13:45:20 2024.
