 Gaussian 16, Revision A.03,
 Gaussian 16:  ES64L-G16RevA.03 25-Dec-2016

 -----------------------------------------------------------
 # AM1 BOMD(NKE=23751,NTraj=10,GradOnly,Maxpoints=1) SCF=XQC
 -----------------------------------------------------------

 atoms for T=298K (=7078 microHartree nuclear kinetic energy for 6-atom
  system) Default StepSize
 ----------------------------------------------------------------------
 Symbolic Z-matrix:
 Charge =  0 Multiplicity = 2

                         Standard orientation:
 ---------------------------------------------------------------------
 Center     Atomic      Atomic             Coordinates (Angstroms)
 Number     Number       Type             X           Y           Z
 ---------------------------------------------------------------------
      1          6           0        1.496366    0.306552   -0.000080
      2          1           0        1.281893    1.376082    0.000916
      3          1           0        2.545752    0.010183   -0.001343
      4          8           0        0.614267   -0.514938    0.000206
      5          8           0       -2.067975    0.134601   -0.000152
      6          1           0       -1.176171   -0.182877    0.000480
 ---------------------------------------------------------------------

 SCF Done:  E(UAM1) = -0.474947557348E-01 A.U. after   23 cycles

 The electronic state is 2-A.
 Alpha  occ. eigenvalues --   -1.47818  -1.31797  -0.94176  -0.67034  -0.62978
 Alpha  occ. eigenvalues --   -0.59065  -0.56364  -0.52691  -0.47040  -0.41269
 Alpha virt. eigenvalues --    0.01686   0.10832   0.13719   0.18867   0.22595
  Beta  occ. eigenvalues --   -1.47798  -1.18721  -0.94159  -0.66576  -0.62501
  Beta  occ. eigenvalues --   -0.56890  -0.56369  -0.44029  -0.41230
  Beta virt. eigenvalues --    0.00850   0.01684   0.10837   0.13737   0.19592
  Beta virt. eigenvalues --    0.23549

 Mulliken charges and spin densities:
               1          2
     1  C    0.165230   0.000023
     2  H    0.070346   0.000050
     3  H    0.071538  -0.000206
     4  O   -0.292914  -0.000998
     5  O   -0.222622   1.031776
     6  H    0.208423  -0.030645
 Sum of Mulliken charges =   0.00000   1.00000

 Dipole moment (field-independent basis, Debye):
    X=              3.3823    Y=              1.1233    Z=              0.0004  Tot=              3.5639
 N-N= 6.070237430637D+01 E-N=-5.861033040607D+01  KE=-4.840436750448D+01
 Calling FoFJK, ICntrl=      2127 FMM=F ISym2X=0 I1Cent= 0 IOpClX= 1 NMat=1 NMatS=1 NMatT=0.
 ***** Axes restored to original set *****
 -------------------------------------------------------------------
 Center     Atomic                   Forces (Hartrees/Bohr)
 Number     Number              X              Y              Z
 -------------------------------------------------------------------
      1        6          -0.029120071   -0.026842868   -0.000008658
      2        1          -0.000002772   -0.016485249    0.000011014
      3        1          -0.016749791    0.001052234   -0.000016697

 Normal termination of Gaussian 16 at Thu May 23 13:53:01 2024.
